data_Dissolve001
_journal_name_full               'J. Made Up Cryst.'
_journal_page_first              1
_journal_page_last               1
_journal_volume                  1
_journal_year                    2024
_chemical_formula_sum            ''
_chemical_name_mineral           Fakeabar
_space_group_IT_number           1
_symmetry_space_group_name_Hall  'P 1'
_symmetry_space_group_name_H-M   'P 1'
_cell_angle_alpha                90
_cell_angle_beta                 90
_cell_angle_gamma                90
_cell_length_a                   20.0
_cell_length_b                   20.0
_cell_length_c                   20.0
_cell_volume                     8000.0
loop_
_symmetry_equiv_pos_as_xyz
x,y,z
loop_
_atom_site_label
_atom_site_fract_x
_atom_site_fract_y
_atom_site_fract_z
Cl  0.334617  0.206096  0.508634
Cl  0.727059  0.205688  0.492114
H  0.739191  0.369421  0.507415
H  0.687352  0.279336  0.560086
H  0.660561  0.289077  0.476648
H  0.519368  0.241117  0.474399
H  0.650541  0.534254  0.509395
C  0.726914  0.598016  0.505856
O  0.525942  0.546035  0.535954
H  0.744746  0.579954  0.458194
H  0.253128  0.600377  0.505184
H  0.754055  0.573597  0.545643
C  0.305306  0.595191  0.492285
Cl  0.514093  0.341667  0.435893
C  0.505982  0.605739  0.503121
O  0.544  0.307981  0.548101
O  0.755106  0.323206  0.496886
H  0.537676  0.27436  0.584565
Cl  0.32794  0.656637  0.451775
C  0.702551  0.276859  0.508328
Cl  0.737893  0.674106  0.510184
H  0.357064  0.304329  0.47033
H  0.253171  0.349094  0.498246
O  0.343991  0.590364  0.551626
H  0.34203  0.302029  0.557181
C  0.326504  0.282665  0.509223
O  0.657671  0.583663  0.512205
H  0.546656  0.514874  0.502789
H  0.452332  0.28857  0.506471
Cl  0.474082  0.653727  0.554195
H  0.329294  0.550464  0.577931
O  0.258439  0.299374  0.497863
H  0.549154  0.629273  0.480799
H  0.312165  0.550556  0.462676
H  0.470005  0.593943  0.464619
C  0.504353  0.289892  0.492048
