data_Dissolve001
_journal_name_full               'J. Made Up Cryst.'
_journal_page_first              1
_journal_page_last               1
_journal_volume                  1
_journal_year                    2024
_chemical_formula_sum            ''
_chemical_name_mineral           Fakeabar
_space_group_IT_number           1
_symmetry_space_group_name_Hall  'P 1'
_symmetry_space_group_name_H-M   'P 1'
_cell_angle_alpha                90
_cell_angle_beta                 90
_cell_angle_gamma                90
_cell_length_a                   20.0
_cell_length_b                   20.0
_cell_length_c                   20.0
_cell_volume                     8000.0
loop_
_symmetry_equiv_pos_as_xyz
x,y,z
loop_
_atom_site_label
_atom_site_fract_x
_atom_site_fract_y
_atom_site_fract_z
C  0.5  0.6  0.5
Cl  0.5  0.677  0.5
H  0.5  0.581975  0.449097
H  0.455901  0.582015  0.52545
O  0.55796  0.5763  0.533465
H  0.55796  0.5263  0.533465
C  0.3  0.6  0.5
Cl  0.3  0.677  0.5
H  0.3  0.581975  0.449097
H  0.255902  0.582015  0.52545
O  0.357961  0.5763  0.533465
H  0.357961  0.5263  0.533465
Cl  0.7  0.677  0.5
C  0.7  0.6  0.5
H  0.7  0.581975  0.449097
H  0.6559  0.582015  0.52545
O  0.75796  0.5763  0.533465
H  0.75796  0.5263  0.533465
O  0.55796  0.2763  0.533465
C  0.5  0.3  0.5
Cl  0.5  0.377  0.5
H  0.5  0.281975  0.449097
H  0.455901  0.282013  0.52545
H  0.55796  0.2263  0.533465
C  0.3  0.3  0.5
H  0.3  0.281975  0.449097
Cl  0.3  0.377  0.5
H  0.255902  0.282013  0.52545
O  0.357961  0.2763  0.533465
H  0.357961  0.2263  0.533465
C  0.7  0.3  0.5
Cl  0.7  0.377  0.5
H  0.7  0.281975  0.449097
H  0.75796  0.2263  0.533465
H  0.6559  0.282013  0.52545
O  0.75796  0.2763  0.533465
